MODEL 1
REMARK VINA RESULT:    -7.528      0.000      0.000
REMARK INTER + INTRA:         -10.727
REMARK INTER:                 -10.168
REMARK INTRA:                  -0.559
REMARK UNBOUND:                -0.559
REMARK  Name = 14180
REMARK  7 active torsions:
REMARK  status: ('A' for Active; 'I' for Inactive)
REMARK    1  A    between atoms: P_1  and  O_5
REMARK    2  A    between atoms: O_3  and  C_12
REMARK    3  A    between atoms: O_4  and  C_13
REMARK    4  A    between atoms: O_5  and  C_16
REMARK    5  A    between atoms: N_10  and  C_15
REMARK    6  A    between atoms: C_14  and  C_16
REMARK    7  A    between atoms: C_19  and  C_22
REMARK                            x       y       z     vdW  Elec       q    Type
REMARK                         _______ _______ _______ _____ _____    ______ ____
ROOT
ATOM      1  O   UNL     1      13.356   3.076  -2.337  1.00  0.00    -0.346 OA
ATOM      2  C   UNL     1      15.600   2.574  -1.728  1.00  0.00    +0.114 C 
ATOM      3  C   UNL     1      15.429   2.346  -3.217  1.00  0.00    +0.128 C 
ATOM      4  C   UNL     1      14.389   3.436  -1.391  1.00  0.00    +0.113 C 
ATOM      5  C   UNL     1      13.923   2.201  -3.329  1.00  0.00    +0.164 C 
ENDROOT
BRANCH   5   6
ATOM      6  N   UNL     1      13.468   2.538  -4.701  1.00  0.00    -0.325 N 
ATOM      7  C   UNL     1      12.272   2.091  -5.126  1.00  0.00    +0.019 A 
ATOM      8  C   UNL     1      14.261   3.285  -5.491  1.00  0.00    +0.007 A 
ATOM      9  C   UNL     1      11.821   2.392  -6.404  1.00  0.00    +0.053 A 
ATOM     10  C   UNL     1      13.862   3.616  -6.778  1.00  0.00    -0.045 A 
ATOM     11  C   UNL     1      12.628   3.163  -7.235  1.00  0.00    -0.047 A 
BRANCH   9  14
ATOM     12  O   UNL     1       9.479   2.195  -6.260  1.00  0.00    -0.270 OA
ATOM     13  N   UNL     1      10.500   1.129  -8.015  1.00  0.00    -0.325 N 
ATOM     14  C   UNL     1      10.530   1.910  -6.863  1.00  0.00    +0.243 C 
ATOM     15  H   UNL     1       9.642   0.785  -8.355  1.00  0.00    +0.000 HD
ATOM     16  H   UNL     1      11.337   0.921  -8.491  1.00  0.00    +0.000 HD
ENDBRANCH   9  14
ENDBRANCH   5   6
BRANCH   2  17
ATOM     17  O   UNL     1      15.486   1.329  -1.038  1.00  0.00    -0.386 OA
ATOM     18  H   UNL     1      15.428   0.607  -1.683  1.00  0.00    +0.000 HD
ENDBRANCH   2  17
BRANCH   3  19
ATOM     19  O   UNL     1      16.106   1.196  -3.680  1.00  0.00    -0.385 OA
ATOM     20  H   UNL     1      15.489   0.448  -3.717  1.00  0.00    +0.000 HD
ENDBRANCH   3  19
BRANCH   4  21
ATOM     21  C   UNL     1      14.665   4.928  -1.525  1.00  0.00    +0.088 C 
BRANCH  21  22
ATOM     22  O   UNL     1      15.879   5.226  -0.859  1.00  0.00    -0.283 OA
BRANCH  22  23
ATOM     23  P   UNL     1      15.870   6.271   0.398  1.00  0.00    +0.502 P 
ATOM     24  O   UNL     1      15.529   7.655  -0.401  1.00  0.00    -0.301 OA
ATOM     25  O   UNL     1      17.279   6.378   0.942  1.00  0.00    -0.116 OA
ATOM     26  O   UNL     1      14.715   5.951   1.322  1.00  0.00    -0.225 OA
ENDBRANCH  22  23
ENDBRANCH  21  22
ENDBRANCH   4  21
TORSDOF 7
ENDMDL
MODEL 2
REMARK VINA RESULT:    -7.272      3.306      7.323
REMARK INTER + INTRA:         -10.382
REMARK INTER:                  -9.749
REMARK INTRA:                  -0.633
REMARK UNBOUND:                -0.559
REMARK  Name = 14180
REMARK  7 active torsions:
REMARK  status: ('A' for Active; 'I' for Inactive)
REMARK    1  A    between atoms: P_1  and  O_5
REMARK    2  A    between atoms: O_3  and  C_12
REMARK    3  A    between atoms: O_4  and  C_13
REMARK    4  A    between atoms: O_5  and  C_16
REMARK    5  A    between atoms: N_10  and  C_15
REMARK    6  A    between atoms: C_14  and  C_16
REMARK    7  A    between atoms: C_19  and  C_22
REMARK                            x       y       z     vdW  Elec       q    Type
REMARK                         _______ _______ _______ _____ _____    ______ ____
ROOT
ATOM      1  O   UNL     1      14.906   4.036  -4.287  1.00  0.00    -0.346 OA
ATOM      2  C   UNL     1      14.231   1.798  -3.845  1.00  0.00    +0.114 C 
ATOM      3  C   UNL     1      14.315   2.556  -2.535  1.00  0.00    +0.128 C 
ATOM      4  C   UNL     1      14.187   2.926  -4.871  1.00  0.00    +0.113 C 
ATOM      5  C   UNL     1      15.213   3.719  -2.917  1.00  0.00    +0.164 C 
ENDROOT
BRANCH   5   6
ATOM      6  N   UNL     1      14.987   4.872  -2.010  1.00  0.00    -0.325 N 
ATOM      7  C   UNL     1      15.860   5.105  -1.013  1.00  0.00    +0.019 A 
ATOM      8  C   UNL     1      13.913   5.659  -2.203  1.00  0.00    +0.007 A 
ATOM      9  C   UNL     1      15.673   6.177  -0.150  1.00  0.00    +0.053 A 
ATOM     10  C   UNL     1      13.676   6.744  -1.372  1.00  0.00    -0.045 A 
ATOM     11  C   UNL     1      14.568   7.002  -0.335  1.00  0.00    -0.047 A 
BRANCH   9  14
ATOM     12  O   UNL     1      17.843   6.452   0.722  1.00  0.00    -0.270 OA
ATOM     13  N   UNL     1      16.102   6.667   2.198  1.00  0.00    -0.325 N 
ATOM     14  C   UNL     1      16.616   6.429   0.926  1.00  0.00    +0.243 C 
ATOM     15  H   UNL     1      16.712   6.841   2.951  1.00  0.00    +0.000 HD
ATOM     16  H   UNL     1      15.128   6.659   2.345  1.00  0.00    +0.000 HD
ENDBRANCH   9  14
ENDBRANCH   5   6
BRANCH   2  17
ATOM     17  O   UNL     1      15.428   1.046  -4.039  1.00  0.00    -0.386 OA
ATOM     18  H   UNL     1      15.828   0.847  -3.178  1.00  0.00    +0.000 HD
ENDBRANCH   2  17
BRANCH   3  19
ATOM     19  O   UNL     1      14.865   1.787  -1.486  1.00  0.00    -0.385 OA
ATOM     20  H   UNL     1      15.821   1.693  -1.619  1.00  0.00    +0.000 HD
ENDBRANCH   3  19
BRANCH   4  21
ATOM     21  C   UNL     1      12.770   3.385  -5.189  1.00  0.00    +0.088 C 
BRANCH  21  22
ATOM     22  O   UNL     1      12.322   2.707  -6.349  1.00  0.00    -0.283 OA
BRANCH  22  23
ATOM     23  P   UNL     1      10.860   1.974  -6.338  1.00  0.00    +0.502 P 
ATOM     24  O   UNL     1       9.947   3.200  -5.760  1.00  0.00    -0.301 OA
ATOM     25  O   UNL     1      10.884   0.875  -5.298  1.00  0.00    -0.116 OA
ATOM     26  O   UNL     1      10.426   1.677  -7.757  1.00  0.00    -0.225 OA
ENDBRANCH  22  23
ENDBRANCH  21  22
ENDBRANCH   4  21
TORSDOF 7
ENDMDL
MODEL 3
REMARK VINA RESULT:    -7.203      3.842      8.131
REMARK INTER + INTRA:         -10.288
REMARK INTER:                  -9.700
REMARK INTRA:                  -0.588
REMARK UNBOUND:                -0.559
REMARK  Name = 14180
REMARK  7 active torsions:
REMARK  status: ('A' for Active; 'I' for Inactive)
REMARK    1  A    between atoms: P_1  and  O_5
REMARK    2  A    between atoms: O_3  and  C_12
REMARK    3  A    between atoms: O_4  and  C_13
REMARK    4  A    between atoms: O_5  and  C_16
REMARK    5  A    between atoms: N_10  and  C_15
REMARK    6  A    between atoms: C_14  and  C_16
REMARK    7  A    between atoms: C_19  and  C_22
REMARK                            x       y       z     vdW  Elec       q    Type
REMARK                         _______ _______ _______ _____ _____    ______ ____
ROOT
ATOM      1  O   UNL     1      12.460   1.088  -5.722  1.00  0.00    -0.346 OA
ATOM      2  C   UNL     1      10.599   2.330  -6.532  1.00  0.00    +0.114 C 
ATOM      3  C   UNL     1      11.592   3.284  -5.896  1.00  0.00    +0.128 C 
ATOM      4  C   UNL     1      11.446   1.082  -6.753  1.00  0.00    +0.113 C 
ATOM      5  C   UNL     1      12.396   2.343  -5.019  1.00  0.00    +0.164 C 
ENDROOT
BRANCH   5   6
ATOM      6  N   UNL     1      13.744   2.905  -4.751  1.00  0.00    -0.325 N 
ATOM      7  C   UNL     1      14.124   3.122  -3.479  1.00  0.00    +0.019 A 
ATOM      8  C   UNL     1      14.557   3.185  -5.786  1.00  0.00    +0.007 A 
ATOM      9  C   UNL     1      15.379   3.646  -3.199  1.00  0.00    +0.053 A 
ATOM     10  C   UNL     1      15.822   3.710  -5.566  1.00  0.00    -0.045 A 
ATOM     11  C   UNL     1      16.233   3.941  -4.257  1.00  0.00    -0.047 A 
BRANCH   9  14
ATOM     12  O   UNL     1      16.991   3.974  -1.515  1.00  0.00    -0.270 OA
ATOM     13  N   UNL     1      14.793   4.019  -0.864  1.00  0.00    -0.325 N 
ATOM     14  C   UNL     1      15.790   3.881  -1.826  1.00  0.00    +0.243 C 
ATOM     15  H   UNL     1      15.035   4.179   0.077  1.00  0.00    +0.000 HD
ATOM     16  H   UNL     1      13.845   3.956  -1.124  1.00  0.00    +0.000 HD
ENDBRANCH   9  14
ENDBRANCH   5   6
BRANCH   2  17
ATOM     17  O   UNL     1       9.565   2.026  -5.596  1.00  0.00    -0.386 OA
ATOM     18  H   UNL     1       9.549   1.070  -5.431  1.00  0.00    +0.000 HD
ENDBRANCH   2  17
BRANCH   3  19
ATOM     19  O   UNL     1      10.971   4.306  -5.144  1.00  0.00    -0.385 OA
ATOM     20  H   UNL     1      11.106   5.160  -5.585  1.00  0.00    +0.000 HD
ENDBRANCH   3  19
BRANCH   4  21
ATOM     21  C   UNL     1      12.139   1.066  -8.109  1.00  0.00    +0.088 C 
BRANCH  21  22
ATOM     22  O   UNL     1      11.154   0.956  -9.121  1.00  0.00    -0.283 OA
BRANCH  22  23
ATOM     23  P   UNL     1      10.742  -0.524  -9.683  1.00  0.00    +0.502 P 
ATOM     24  O   UNL     1       9.692  -0.087 -10.857  1.00  0.00    -0.301 OA
ATOM     25  O   UNL     1       9.965  -1.246  -8.604  1.00  0.00    -0.116 OA
ATOM     26  O   UNL     1      11.943  -1.178 -10.330  1.00  0.00    -0.225 OA
ENDBRANCH  22  23
ENDBRANCH  21  22
ENDBRANCH   4  21
TORSDOF 7
ENDMDL
MODEL 4
REMARK VINA RESULT:    -7.102      4.310      7.847
REMARK INTER + INTRA:         -10.151
REMARK INTER:                  -9.538
REMARK INTRA:                  -0.613
REMARK UNBOUND:                -0.559
REMARK  Name = 14180
REMARK  7 active torsions:
REMARK  status: ('A' for Active; 'I' for Inactive)
REMARK    1  A    between atoms: P_1  and  O_5
REMARK    2  A    between atoms: O_3  and  C_12
REMARK    3  A    between atoms: O_4  and  C_13
REMARK    4  A    between atoms: O_5  and  C_16
REMARK    5  A    between atoms: N_10  and  C_15
REMARK    6  A    between atoms: C_14  and  C_16
REMARK    7  A    between atoms: C_19  and  C_22
REMARK                            x       y       z     vdW  Elec       q    Type
REMARK                         _______ _______ _______ _____ _____    ______ ____
ROOT
ATOM      1  O   UNL     1      13.360   1.468  -6.858  1.00  0.00    -0.346 OA
ATOM      2  C   UNL     1      12.002  -0.483  -6.767  1.00  0.00    +0.114 C 
ATOM      3  C   UNL     1      11.925   0.235  -5.434  1.00  0.00    +0.128 C 
ATOM      4  C   UNL     1      12.554   0.600  -7.687  1.00  0.00    +0.113 C 
ATOM      5  C   UNL     1      13.177   1.092  -5.481  1.00  0.00    +0.164 C 
ENDROOT
BRANCH   5   6
ATOM      6  N   UNL     1      13.033   2.272  -4.591  1.00  0.00    -0.325 N 
ATOM      7  C   UNL     1      13.663   2.280  -3.402  1.00  0.00    +0.019 A 
ATOM      8  C   UNL     1      12.276   3.310  -4.993  1.00  0.00    +0.007 A 
ATOM      9  C   UNL     1      13.547   3.370  -2.551  1.00  0.00    +0.053 A 
ATOM     10  C   UNL     1      12.124   4.426  -4.183  1.00  0.00    -0.045 A 
ATOM     11  C   UNL     1      12.768   4.452  -2.950  1.00  0.00    -0.047 A 
BRANCH   9  14
ATOM     12  O   UNL     1      14.681   4.430  -0.780  1.00  0.00    -0.270 OA
ATOM     13  N   UNL     1      14.338   2.171  -0.583  1.00  0.00    -0.325 N 
ATOM     14  C   UNL     1      14.227   3.379  -1.267  1.00  0.00    +0.243 C 
ATOM     15  H   UNL     1      14.793   2.140   0.290  1.00  0.00    +0.000 HD
ATOM     16  H   UNL     1      13.963   1.348  -0.972  1.00  0.00    +0.000 HD
ENDBRANCH   9  14
ENDBRANCH   5   6
BRANCH   2  17
ATOM     17  O   UNL     1      12.952  -1.545  -6.682  1.00  0.00    -0.386 OA
ATOM     18  H   UNL     1      12.984  -2.019  -7.528  1.00  0.00    +0.000 HD
ENDBRANCH   2  17
BRANCH   3  19
ATOM     19  O   UNL     1      11.930  -0.647  -4.331  1.00  0.00    -0.385 OA
ATOM     20  H   UNL     1      12.304  -1.501  -4.600  1.00  0.00    +0.000 HD
ENDBRANCH   3  19
BRANCH   4  21
ATOM     21  C   UNL     1      11.463   1.437  -8.342  1.00  0.00    +0.088 C 
BRANCH  21  22
ATOM     22  O   UNL     1      12.018   2.112  -9.457  1.00  0.00    -0.283 OA
BRANCH  22  23
ATOM     23  P   UNL     1      12.265   1.294 -10.851  1.00  0.00    +0.502 P 
ATOM     24  O   UNL     1      12.150   2.528 -11.916  1.00  0.00    -0.301 OA
ATOM     25  O   UNL     1      11.089   0.368 -11.076  1.00  0.00    -0.116 OA
ATOM     26  O   UNL     1      13.680   0.758 -10.886  1.00  0.00    -0.225 OA
ENDBRANCH  22  23
ENDBRANCH  21  22
ENDBRANCH   4  21
TORSDOF 7
ENDMDL
MODEL 5
REMARK VINA RESULT:    -7.085      3.932      7.971
REMARK INTER + INTRA:         -10.129
REMARK INTER:                  -9.503
REMARK INTRA:                  -0.627
REMARK UNBOUND:                -0.559
REMARK  Name = 14180
REMARK  7 active torsions:
REMARK  status: ('A' for Active; 'I' for Inactive)
REMARK    1  A    between atoms: P_1  and  O_5
REMARK    2  A    between atoms: O_3  and  C_12
REMARK    3  A    between atoms: O_4  and  C_13
REMARK    4  A    between atoms: O_5  and  C_16
REMARK    5  A    between atoms: N_10  and  C_15
REMARK    6  A    between atoms: C_14  and  C_16
REMARK    7  A    between atoms: C_19  and  C_22
REMARK                            x       y       z     vdW  Elec       q    Type
REMARK                         _______ _______ _______ _____ _____    ______ ____
ROOT
ATOM      1  O   UNL     1      12.362   0.629  -5.942  1.00  0.00    -0.346 OA
ATOM      2  C   UNL     1      10.731   2.043  -6.941  1.00  0.00    +0.114 C 
ATOM      3  C   UNL     1      11.706   2.894  -6.151  1.00  0.00    +0.128 C 
ATOM      4  C   UNL     1      11.495   0.732  -7.094  1.00  0.00    +0.113 C 
ATOM      5  C   UNL     1      12.309   1.867  -5.211  1.00  0.00    +0.164 C 
ENDROOT
BRANCH   5   6
ATOM      6  N   UNL     1      13.652   2.306  -4.753  1.00  0.00    -0.325 N 
ATOM      7  C   UNL     1      14.078   1.949  -3.528  1.00  0.00    +0.019 A 
ATOM      8  C   UNL     1      14.414   3.053  -5.573  1.00  0.00    +0.007 A 
ATOM      9  C   UNL     1      15.329   2.345  -3.074  1.00  0.00    +0.053 A 
ATOM     10  C   UNL     1      15.673   3.476  -5.173  1.00  0.00    -0.045 A 
ATOM     11  C   UNL     1      16.131   3.117  -3.909  1.00  0.00    -0.047 A 
BRANCH   9  14
ATOM     12  O   UNL     1      16.999   1.958  -1.460  1.00  0.00    -0.270 OA
ATOM     13  N   UNL     1      14.828   1.609  -0.806  1.00  0.00    -0.325 N 
ATOM     14  C   UNL     1      15.789   1.960  -1.751  1.00  0.00    +0.243 C 
ATOM     15  H   UNL     1      15.105   1.342   0.101  1.00  0.00    +0.000 HD
ATOM     16  H   UNL     1      13.873   1.627  -1.044  1.00  0.00    +0.000 HD
ENDBRANCH   9  14
ENDBRANCH   5   6
BRANCH   2  17
ATOM     17  O   UNL     1       9.562   1.806  -6.157  1.00  0.00    -0.386 OA
ATOM     18  H   UNL     1       8.772   1.954  -6.701  1.00  0.00    +0.000 HD
ENDBRANCH   2  17
BRANCH   3  19
ATOM     19  O   UNL     1      11.078   3.947  -5.451  1.00  0.00    -0.385 OA
ATOM     20  H   UNL     1      10.552   4.480  -6.069  1.00  0.00    +0.000 HD
ENDBRANCH   3  19
BRANCH   4  21
ATOM     21  C   UNL     1      12.356   0.690  -8.350  1.00  0.00    +0.088 C 
BRANCH  21  22
ATOM     22  O   UNL     1      11.664   1.348  -9.397  1.00  0.00    -0.283 OA
BRANCH  22  23
ATOM     23  P   UNL     1      12.386   1.517 -10.854  1.00  0.00    +0.502 P 
ATOM     24  O   UNL     1      11.521   0.429 -11.714  1.00  0.00    -0.301 OA
ATOM     25  O   UNL     1      13.807   1.007 -10.747  1.00  0.00    -0.116 OA
ATOM     26  O   UNL     1      12.108   2.898 -11.406  1.00  0.00    -0.225 OA
ENDBRANCH  22  23
ENDBRANCH  21  22
ENDBRANCH   4  21
TORSDOF 7
ENDMDL
MODEL 6
REMARK VINA RESULT:    -6.667      3.758      6.853
REMARK INTER + INTRA:          -9.565
REMARK INTER:                  -8.957
REMARK INTRA:                  -0.607
REMARK UNBOUND:                -0.559
REMARK  Name = 14180
REMARK  7 active torsions:
REMARK  status: ('A' for Active; 'I' for Inactive)
REMARK    1  A    between atoms: P_1  and  O_5
REMARK    2  A    between atoms: O_3  and  C_12
REMARK    3  A    between atoms: O_4  and  C_13
REMARK    4  A    between atoms: O_5  and  C_16
REMARK    5  A    between atoms: N_10  and  C_15
REMARK    6  A    between atoms: C_14  and  C_16
REMARK    7  A    between atoms: C_19  and  C_22
REMARK                            x       y       z     vdW  Elec       q    Type
REMARK                         _______ _______ _______ _____ _____    ______ ____
ROOT
ATOM      1  O   UNL     1      14.755   1.731  -3.293  1.00  0.00    -0.346 OA
ATOM      2  C   UNL     1      14.246   3.617  -1.935  1.00  0.00    +0.114 C 
ATOM      3  C   UNL     1      15.690   3.711  -2.391  1.00  0.00    +0.128 C 
ATOM      4  C   UNL     1      13.664   2.600  -2.910  1.00  0.00    +0.113 C 
ATOM      5  C   UNL     1      15.981   2.270  -2.767  1.00  0.00    +0.164 C 
ENDROOT
BRANCH   5   6
ATOM      6  N   UNL     1      17.092   2.203  -3.749  1.00  0.00    -0.325 N 
ATOM      7  C   UNL     1      18.311   1.808  -3.339  1.00  0.00    +0.019 A 
ATOM      8  C   UNL     1      16.856   2.539  -5.031  1.00  0.00    +0.007 A 
ATOM      9  C   UNL     1      19.367   1.735  -4.236  1.00  0.00    +0.053 A 
ATOM     10  C   UNL     1      17.874   2.485  -5.972  1.00  0.00    -0.045 A 
ATOM     11  C   UNL     1      19.142   2.078  -5.566  1.00  0.00    -0.047 A 
BRANCH   9  14
ATOM     12  O   UNL     1      21.089   0.148  -3.987  1.00  0.00    -0.270 OA
ATOM     13  N   UNL     1      21.491   2.248  -3.157  1.00  0.00    -0.325 N 
ATOM     14  C   UNL     1      20.683   1.308  -3.793  1.00  0.00    +0.243 C 
ATOM     15  H   UNL     1      22.389   1.993  -2.844  1.00  0.00    +0.000 HD
ATOM     16  H   UNL     1      21.164   3.167  -3.021  1.00  0.00    +0.000 HD
ENDBRANCH   9  14
ENDBRANCH   5   6
BRANCH   2  17
ATOM     17  O   UNL     1      14.197   3.073  -0.617  1.00  0.00    -0.386 OA
ATOM     18  H   UNL     1      14.543   2.167  -0.628  1.00  0.00    +0.000 HD
ENDBRANCH   2  17
BRANCH   3  19
ATOM     19  O   UNL     1      16.558   4.180  -1.381  1.00  0.00    -0.385 OA
ATOM     20  H   UNL     1      16.177   3.986  -0.509  1.00  0.00    +0.000 HD
ENDBRANCH   3  19
BRANCH   4  21
ATOM     21  C   UNL     1      13.095   3.240  -4.169  1.00  0.00    +0.088 C 
BRANCH  21  22
ATOM     22  O   UNL     1      12.635   2.215  -5.032  1.00  0.00    -0.283 OA
BRANCH  22  23
ATOM     23  P   UNL     1      11.351   2.499  -6.003  1.00  0.00    +0.502 P 
ATOM     24  O   UNL     1      10.511   1.119  -5.754  1.00  0.00    -0.301 OA
ATOM     25  O   UNL     1      11.829   2.504  -7.439  1.00  0.00    -0.116 OA
ATOM     26  O   UNL     1      10.544   3.658  -5.460  1.00  0.00    -0.225 OA
ENDBRANCH  22  23
ENDBRANCH  21  22
ENDBRANCH   4  21
TORSDOF 7
ENDMDL
MODEL 7
REMARK VINA RESULT:    -6.521      3.556      6.355
REMARK INTER + INTRA:          -9.367
REMARK INTER:                  -8.895
REMARK INTRA:                  -0.472
REMARK UNBOUND:                -0.559
REMARK  Name = 14180
REMARK  7 active torsions:
REMARK  status: ('A' for Active; 'I' for Inactive)
REMARK    1  A    between atoms: P_1  and  O_5
REMARK    2  A    between atoms: O_3  and  C_12
REMARK    3  A    between atoms: O_4  and  C_13
REMARK    4  A    between atoms: O_5  and  C_16
REMARK    5  A    between atoms: N_10  and  C_15
REMARK    6  A    between atoms: C_14  and  C_16
REMARK    7  A    between atoms: C_19  and  C_22
REMARK                            x       y       z     vdW  Elec       q    Type
REMARK                         _______ _______ _______ _____ _____    ______ ____
ROOT
ATOM      1  O   UNL     1      15.281   1.891  -2.484  1.00  0.00    -0.346 OA
ATOM      2  C   UNL     1      14.774   4.106  -1.776  1.00  0.00    +0.114 C 
ATOM      3  C   UNL     1      16.276   3.968  -1.931  1.00  0.00    +0.128 C 
ATOM      4  C   UNL     1      14.256   2.908  -2.565  1.00  0.00    +0.113 C 
ATOM      5  C   UNL     1      16.449   2.461  -1.865  1.00  0.00    +0.164 C 
ENDROOT
BRANCH   5   6
ATOM      6  N   UNL     1      17.702   2.051  -2.548  1.00  0.00    -0.325 N 
ATOM      7  C   UNL     1      17.635   1.523  -3.783  1.00  0.00    +0.019 A 
ATOM      8  C   UNL     1      18.879   2.216  -1.916  1.00  0.00    +0.007 A 
ATOM      9  C   UNL     1      18.791   1.131  -4.445  1.00  0.00    +0.053 A 
ATOM     10  C   UNL     1      20.066   1.843  -2.529  1.00  0.00    -0.045 A 
ATOM     11  C   UNL     1      20.017   1.295  -3.807  1.00  0.00    -0.047 A 
BRANCH   9  14
ATOM     12  O   UNL     1      19.257   1.118  -6.753  1.00  0.00    -0.270 OA
ATOM     13  N   UNL     1      18.043  -0.647  -5.934  1.00  0.00    -0.325 N 
ATOM     14  C   UNL     1      18.719   0.560  -5.779  1.00  0.00    +0.243 C 
ATOM     15  H   UNL     1      17.975  -1.062  -6.824  1.00  0.00    +0.000 HD
ATOM     16  H   UNL     1      17.633  -1.085  -5.153  1.00  0.00    +0.000 HD
ENDBRANCH   9  14
ENDBRANCH   5   6
BRANCH   2  17
ATOM     17  O   UNL     1      14.419   3.942  -0.403  1.00  0.00    -0.386 OA
ATOM     18  H   UNL     1      13.456   3.999  -0.309  1.00  0.00    +0.000 HD
ENDBRANCH   2  17
BRANCH   3  19
ATOM     19  O   UNL     1      16.999   4.627  -0.912  1.00  0.00    -0.385 OA
ATOM     20  H   UNL     1      17.277   3.983  -0.242  1.00  0.00    +0.000 HD
ENDBRANCH   3  19
BRANCH   4  21
ATOM     21  C   UNL     1      14.008   3.225  -4.034  1.00  0.00    +0.088 C 
BRANCH  21  22
ATOM     22  O   UNL     1      12.809   2.590  -4.439  1.00  0.00    -0.283 OA
BRANCH  22  23
ATOM     23  P   UNL     1      11.985   3.175  -5.725  1.00  0.00    +0.502 P 
ATOM     24  O   UNL     1      11.135   4.360  -4.987  1.00  0.00    -0.301 OA
ATOM     25  O   UNL     1      11.008   2.117  -6.189  1.00  0.00    -0.116 OA
ATOM     26  O   UNL     1      12.948   3.811  -6.703  1.00  0.00    -0.225 OA
ENDBRANCH  22  23
ENDBRANCH  21  22
ENDBRANCH   4  21
TORSDOF 7
ENDMDL
MODEL 8
REMARK VINA RESULT:    -6.383      2.827      4.619
REMARK INTER + INTRA:          -9.180
REMARK INTER:                  -8.152
REMARK INTRA:                  -1.028
REMARK UNBOUND:                -0.559
REMARK  Name = 14180
REMARK  7 active torsions:
REMARK  status: ('A' for Active; 'I' for Inactive)
REMARK    1  A    between atoms: P_1  and  O_5
REMARK    2  A    between atoms: O_3  and  C_12
REMARK    3  A    between atoms: O_4  and  C_13
REMARK    4  A    between atoms: O_5  and  C_16
REMARK    5  A    between atoms: N_10  and  C_15
REMARK    6  A    between atoms: C_14  and  C_16
REMARK    7  A    between atoms: C_19  and  C_22
REMARK                            x       y       z     vdW  Elec       q    Type
REMARK                         _______ _______ _______ _____ _____    ______ ____
ROOT
ATOM      1  O   UNL     1      15.335   3.686  -3.750  1.00  0.00    -0.346 OA
ATOM      2  C   UNL     1      15.499   2.911  -1.507  1.00  0.00    +0.114 C 
ATOM      3  C   UNL     1      14.157   2.494  -2.076  1.00  0.00    +0.128 C 
ATOM      4  C   UNL     1      16.295   3.245  -2.764  1.00  0.00    +0.113 C 
ATOM      5  C   UNL     1      14.009   3.461  -3.237  1.00  0.00    +0.164 C 
ENDROOT
BRANCH   5   6
ATOM      6  N   UNL     1      13.096   2.903  -4.266  1.00  0.00    -0.325 N 
ATOM      7  C   UNL     1      13.176   1.596  -4.578  1.00  0.00    +0.019 A 
ATOM      8  C   UNL     1      12.206   3.715  -4.866  1.00  0.00    +0.007 A 
ATOM      9  C   UNL     1      12.335   1.047  -5.536  1.00  0.00    +0.053 A 
ATOM     10  C   UNL     1      11.340   3.222  -5.830  1.00  0.00    -0.045 A 
ATOM     11  C   UNL     1      11.408   1.873  -6.166  1.00  0.00    -0.047 A 
BRANCH   9  14
ATOM     12  O   UNL     1      11.439  -0.987  -6.311  1.00  0.00    -0.270 OA
ATOM     13  N   UNL     1      13.651  -0.996  -5.706  1.00  0.00    -0.325 N 
ATOM     14  C   UNL     1      12.421  -0.363  -5.872  1.00  0.00    +0.243 C 
ATOM     15  H   UNL     1      13.745  -1.951  -5.924  1.00  0.00    +0.000 HD
ATOM     16  H   UNL     1      14.424  -0.488  -5.370  1.00  0.00    +0.000 HD
ENDBRANCH   9  14
ENDBRANCH   5   6
BRANCH   2  17
ATOM     17  O   UNL     1      15.339   4.100  -0.733  1.00  0.00    -0.386 OA
ATOM     18  H   UNL     1      14.447   4.121  -0.353  1.00  0.00    +0.000 HD
ENDBRANCH   2  17
BRANCH   3  19
ATOM     19  O   UNL     1      13.101   2.617  -1.148  1.00  0.00    -0.385 OA
ATOM     20  H   UNL     1      12.451   3.258  -1.478  1.00  0.00    +0.000 HD
ENDBRANCH   3  19
BRANCH   4  21
ATOM     21  C   UNL     1      17.047   2.046  -3.327  1.00  0.00    +0.088 C 
BRANCH  21  22
ATOM     22  O   UNL     1      17.590   2.402  -4.586  1.00  0.00    -0.283 OA
BRANCH  22  23
ATOM     23  P   UNL     1      17.773   1.254  -5.735  1.00  0.00    +0.502 P 
ATOM     24  O   UNL     1      16.250   0.663  -5.775  1.00  0.00    -0.301 OA
ATOM     25  O   UNL     1      18.681   0.172  -5.191  1.00  0.00    -0.116 OA
ATOM     26  O   UNL     1      18.072   1.906  -7.068  1.00  0.00    -0.225 OA
ENDBRANCH  22  23
ENDBRANCH  21  22
ENDBRANCH   4  21
TORSDOF 7
ENDMDL
MODEL 9
REMARK VINA RESULT:    -6.224      3.431      6.616
REMARK INTER + INTRA:          -8.966
REMARK INTER:                  -8.177
REMARK INTRA:                  -0.789
REMARK UNBOUND:                -0.559
REMARK  Name = 14180
REMARK  7 active torsions:
REMARK  status: ('A' for Active; 'I' for Inactive)
REMARK    1  A    between atoms: P_1  and  O_5
REMARK    2  A    between atoms: O_3  and  C_12
REMARK    3  A    between atoms: O_4  and  C_13
REMARK    4  A    between atoms: O_5  and  C_16
REMARK    5  A    between atoms: N_10  and  C_15
REMARK    6  A    between atoms: C_14  and  C_16
REMARK    7  A    between atoms: C_19  and  C_22
REMARK                            x       y       z     vdW  Elec       q    Type
REMARK                         _______ _______ _______ _____ _____    ______ ____
ROOT
ATOM      1  O   UNL     1      15.161   3.148  -6.867  1.00  0.00    -0.346 OA
ATOM      2  C   UNL     1      13.950   1.205  -7.517  1.00  0.00    +0.114 C 
ATOM      3  C   UNL     1      14.575   0.966  -6.156  1.00  0.00    +0.128 C 
ATOM      4  C   UNL     1      14.015   2.724  -7.641  1.00  0.00    +0.113 C 
ATOM      5  C   UNL     1      15.671   2.016  -6.139  1.00  0.00    +0.164 C 
ENDROOT
BRANCH   5   6
ATOM      6  N   UNL     1      16.036   2.365  -4.743  1.00  0.00    -0.325 N 
ATOM      7  C   UNL     1      15.213   3.150  -4.025  1.00  0.00    +0.019 A 
ATOM      8  C   UNL     1      17.183   1.888  -4.225  1.00  0.00    +0.007 A 
ATOM      9  C   UNL     1      15.529   3.492  -2.717  1.00  0.00    +0.053 A 
ATOM     10  C   UNL     1      17.550   2.197  -2.923  1.00  0.00    -0.045 A 
ATOM     11  C   UNL     1      16.711   3.008  -2.165  1.00  0.00    -0.047 A 
BRANCH   9  14
ATOM     12  O   UNL     1      13.576   4.773  -2.420  1.00  0.00    -0.270 OA
ATOM     13  N   UNL     1      15.005   4.637  -0.631  1.00  0.00    -0.325 N 
ATOM     14  C   UNL     1      14.639   4.339  -1.941  1.00  0.00    +0.243 C 
ATOM     15  H   UNL     1      14.426   5.208  -0.076  1.00  0.00    +0.000 HD
ATOM     16  H   UNL     1      15.842   4.277  -0.259  1.00  0.00    +0.000 HD
ENDBRANCH   9  14
ENDBRANCH   5   6
BRANCH   2  17
ATOM     17  O   UNL     1      14.773   0.624  -8.528  1.00  0.00    -0.386 OA
ATOM     18  H   UNL     1      15.573   0.256  -8.122  1.00  0.00    +0.000 HD
ENDBRANCH   2  17
BRANCH   3  19
ATOM     19  O   UNL     1      15.091  -0.340  -6.008  1.00  0.00    -0.385 OA
ATOM     20  H   UNL     1      16.019  -0.292  -5.725  1.00  0.00    +0.000 HD
ENDBRANCH   3  19
BRANCH   4  21
ATOM     21  C   UNL     1      12.778   3.419  -7.089  1.00  0.00    +0.088 C 
BRANCH  21  22
ATOM     22  O   UNL     1      11.665   2.556  -7.246  1.00  0.00    -0.283 OA
BRANCH  22  23
ATOM     23  P   UNL     1      10.648   2.320  -5.987  1.00  0.00    +0.502 P 
ATOM     24  O   UNL     1       9.244   2.137  -6.802  1.00  0.00    -0.301 OA
ATOM     25  O   UNL     1      10.566   3.604  -5.191  1.00  0.00    -0.116 OA
ATOM     26  O   UNL     1      10.980   1.013  -5.300  1.00  0.00    -0.225 OA
ENDBRANCH  22  23
ENDBRANCH  21  22
ENDBRANCH   4  21
TORSDOF 7
ENDMDL
