MODEL 1
REMARK VINA RESULT:    -8.459      0.000      0.000
REMARK INTER + INTRA:         -10.867
REMARK INTER:                 -10.685
REMARK INTRA:                  -0.183
REMARK UNBOUND:                -0.183
REMARK  Name = 439924
REMARK  6 active torsions:
REMARK  status: ('A' for Active; 'I' for Inactive)
REMARK    1  A    between atoms: O2*_2  and  C2*_8
REMARK    2  A    between atoms: O3*_3  and  C3*_9
REMARK    3  A    between atoms: O5*_4  and  C5*_12
REMARK    4  A    between atoms: N_6  and  C1*_10
REMARK    5  A    between atoms: C4*_11  and  C5*_12
REMARK    6  A    between atoms: C_15  and  C_18
REMARK                            x       y       z     vdW  Elec       q    Type
REMARK                         _______ _______ _______ _____ _____    ______ ____
ROOT
ATOM      1  O4* UNL     1      12.572  10.810  10.118  1.00  0.00    -0.346 OA
ATOM      2  C2* UNL     1      11.091   9.679   8.656  1.00  0.00    +0.128 C 
ATOM      3  C3* UNL     1      10.289  10.203   9.831  1.00  0.00    +0.114 C 
ATOM      4  C1* UNL     1      12.331  10.553   8.723  1.00  0.00    +0.164 C 
ATOM      5  C4* UNL     1      11.376  10.489  10.864  1.00  0.00    +0.113 C 
ENDROOT
BRANCH   4   6
ATOM      6  N   UNL     1      13.479   9.877   8.069  1.00  0.00    -0.325 N 
ATOM      7  C   UNL     1      13.609   9.948   6.731  1.00  0.00    +0.019 A 
ATOM      8  C   UNL     1      14.368   9.209   8.827  1.00  0.00    +0.007 A 
ATOM      9  C   UNL     1      14.673   9.327   6.094  1.00  0.00    +0.053 A 
ATOM     10  C   UNL     1      15.452   8.568   8.244  1.00  0.00    -0.045 A 
ATOM     11  C   UNL     1      15.602   8.631   6.862  1.00  0.00    -0.047 A 
BRANCH   9  14
ATOM     12  O   UNL     1      14.052  10.100   3.958  1.00  0.00    -0.270 OA
ATOM     13  N   UNL     1      15.850   8.679   4.060  1.00  0.00    -0.325 N 
ATOM     14  C   UNL     1      14.815   9.402   4.650  1.00  0.00    +0.243 C 
ATOM     15  H   UNL     1      15.974   8.707   3.084  1.00  0.00    +0.000 HD
ATOM     16  H   UNL     1      16.454   8.141   4.619  1.00  0.00    +0.000 HD
ENDBRANCH   9  14
ENDBRANCH   4   6
BRANCH   2  17
ATOM     17  O2* UNL     1      10.416   9.812   7.423  1.00  0.00    -0.385 OA
ATOM     18  H2* UNL     1       9.594  10.311   7.556  1.00  0.00    +0.000 HD
ENDBRANCH   2  17
BRANCH   3  19
ATOM     19  O3* UNL     1       9.663  11.434   9.469  1.00  0.00    -0.386 OA
ATOM     20  H3* UNL     1       9.504  11.962  10.267  1.00  0.00    +0.000 HD
ENDBRANCH   3  19
BRANCH   5  21
ATOM     21  C5* UNL     1      11.673   9.295  11.759  1.00  0.00    +0.073 C 
BRANCH  21  22
ATOM     22  O5* UNL     1      13.052   8.990  11.666  1.00  0.00    -0.392 OA
ATOM     23  H5* UNL     1      13.250   8.213  12.213  1.00  0.00    +0.000 HD
ENDBRANCH  21  22
ENDBRANCH   5  21
TORSDOF 6
ENDMDL
MODEL 2
REMARK VINA RESULT:    -8.293      1.199      2.058
REMARK INTER + INTRA:         -10.657
REMARK INTER:                 -10.323
REMARK INTRA:                  -0.334
REMARK UNBOUND:                -0.183
REMARK  Name = 439924
REMARK  6 active torsions:
REMARK  status: ('A' for Active; 'I' for Inactive)
REMARK    1  A    between atoms: O2*_2  and  C2*_8
REMARK    2  A    between atoms: O3*_3  and  C3*_9
REMARK    3  A    between atoms: O5*_4  and  C5*_12
REMARK    4  A    between atoms: N_6  and  C1*_10
REMARK    5  A    between atoms: C4*_11  and  C5*_12
REMARK    6  A    between atoms: C_15  and  C_18
REMARK                            x       y       z     vdW  Elec       q    Type
REMARK                         _______ _______ _______ _____ _____    ______ ____
ROOT
ATOM      1  O4* UNL     1      12.177   9.274   9.749  1.00  0.00    -0.346 OA
ATOM      2  C2* UNL     1      12.354  11.345   8.614  1.00  0.00    +0.128 C 
ATOM      3  C3* UNL     1      11.130  11.397   9.508  1.00  0.00    +0.114 C 
ATOM      4  C1* UNL     1      13.144  10.215   9.250  1.00  0.00    +0.164 C 
ATOM      5  C4* UNL     1      10.885   9.921   9.809  1.00  0.00    +0.113 C 
ENDROOT
BRANCH   4   6
ATOM      6  N   UNL     1      14.065   9.603   8.260  1.00  0.00    -0.325 N 
ATOM      7  C   UNL     1      13.895   9.866   6.952  1.00  0.00    +0.019 A 
ATOM      8  C   UNL     1      15.053   8.797   8.692  1.00  0.00    +0.007 A 
ATOM      9  C   UNL     1      14.741   9.308   6.006  1.00  0.00    +0.053 A 
ATOM     10  C   UNL     1      15.930   8.211   7.790  1.00  0.00    -0.045 A 
ATOM     11  C   UNL     1      15.768   8.472   6.433  1.00  0.00    -0.047 A 
BRANCH   9  14
ATOM     12  O   UNL     1      13.711  10.414   4.199  1.00  0.00    -0.270 OA
ATOM     13  N   UNL     1      15.377   8.924   3.684  1.00  0.00    -0.325 N 
ATOM     14  C   UNL     1      14.558   9.591   4.592  1.00  0.00    +0.243 C 
ATOM     15  H   UNL     1      15.280   9.092   2.719  1.00  0.00    +0.000 HD
ATOM     16  H   UNL     1      16.052   8.285   4.008  1.00  0.00    +0.000 HD
ENDBRANCH   9  14
ENDBRANCH   4   6
BRANCH   2  17
ATOM     17  O2* UNL     1      13.081  12.556   8.601  1.00  0.00    -0.385 OA
ATOM     18  H2* UNL     1      12.948  13.003   7.750  1.00  0.00    +0.000 HD
ENDBRANCH   2  17
BRANCH   3  19
ATOM     19  O3* UNL     1      11.458  12.067  10.725  1.00  0.00    -0.386 OA
ATOM     20  H3* UNL     1      11.516  13.022  10.562  1.00  0.00    +0.000 HD
ENDBRANCH   3  19
BRANCH   5  21
ATOM     21  C5* UNL     1       9.965   9.254   8.798  1.00  0.00    +0.073 C 
BRANCH  21  22
ATOM     22  O5* UNL     1       8.869  10.113   8.545  1.00  0.00    -0.392 OA
ATOM     23  H5* UNL     1       8.188   9.979   9.224  1.00  0.00    +0.000 HD
ENDBRANCH  21  22
ENDBRANCH   5  21
TORSDOF 6
ENDMDL
MODEL 3
REMARK VINA RESULT:    -7.181      1.360      2.191
REMARK INTER + INTRA:          -9.253
REMARK INTER:                  -9.172
REMARK INTRA:                  -0.081
REMARK UNBOUND:                -0.183
REMARK  Name = 439924
REMARK  6 active torsions:
REMARK  status: ('A' for Active; 'I' for Inactive)
REMARK    1  A    between atoms: O2*_2  and  C2*_8
REMARK    2  A    between atoms: O3*_3  and  C3*_9
REMARK    3  A    between atoms: O5*_4  and  C5*_12
REMARK    4  A    between atoms: N_6  and  C1*_10
REMARK    5  A    between atoms: C4*_11  and  C5*_12
REMARK    6  A    between atoms: C_15  and  C_18
REMARK                            x       y       z     vdW  Elec       q    Type
REMARK                         _______ _______ _______ _____ _____    ______ ____
ROOT
ATOM      1  O4* UNL     1      11.463  11.179   8.275  1.00  0.00    -0.346 OA
ATOM      2  C2* UNL     1      12.203  10.286  10.341  1.00  0.00    +0.128 C 
ATOM      3  C3* UNL     1      11.040  11.219  10.617  1.00  0.00    +0.114 C 
ATOM      4  C1* UNL     1      12.004   9.984   8.866  1.00  0.00    +0.164 C 
ATOM      5  C4* UNL     1      10.966  12.035   9.330  1.00  0.00    +0.113 C 
ENDROOT
BRANCH   4   6
ATOM      6  N   UNL     1      13.286   9.578   8.240  1.00  0.00    -0.325 N 
ATOM      7  C   UNL     1      13.429   9.683   6.906  1.00  0.00    +0.019 A 
ATOM      8  C   UNL     1      14.281   9.114   9.019  1.00  0.00    +0.007 A 
ATOM      9  C   UNL     1      14.618   9.312   6.294  1.00  0.00    +0.053 A 
ATOM     10  C   UNL     1      15.492   8.728   8.461  1.00  0.00    -0.045 A 
ATOM     11  C   UNL     1      15.657   8.830   7.083  1.00  0.00    -0.047 A 
BRANCH   9  14
ATOM     12  O   UNL     1      13.988  10.104   4.167  1.00  0.00    -0.270 OA
ATOM     13  N   UNL     1      15.845   8.760   4.262  1.00  0.00    -0.325 N 
ATOM     14  C   UNL     1      14.773   9.425   4.853  1.00  0.00    +0.243 C 
ATOM     15  H   UNL     1      15.981   8.815   3.289  1.00  0.00    +0.000 HD
ATOM     16  H   UNL     1      16.466   8.236   4.818  1.00  0.00    +0.000 HD
ENDBRANCH   9  14
ENDBRANCH   4   6
BRANCH   2  17
ATOM     17  O2* UNL     1      12.172   9.115  11.130  1.00  0.00    -0.385 OA
ATOM     18  H2* UNL     1      11.515   8.499  10.768  1.00  0.00    +0.000 HD
ENDBRANCH   2  17
BRANCH   3  19
ATOM     19  O3* UNL     1       9.840  10.457  10.749  1.00  0.00    -0.386 OA
ATOM     20  H3* UNL     1       9.085  11.058  10.849  1.00  0.00    +0.000 HD
ENDBRANCH   3  19
BRANCH   5  21
ATOM     21  C5* UNL     1      11.822  13.292   9.373  1.00  0.00    +0.073 C 
BRANCH  21  22
ATOM     22  O5* UNL     1      11.646  13.918  10.631  1.00  0.00    -0.392 OA
ATOM     23  H5* UNL     1      12.494  13.945  11.102  1.00  0.00    +0.000 HD
ENDBRANCH  21  22
ENDBRANCH   5  21
TORSDOF 6
ENDMDL
MODEL 4
REMARK VINA RESULT:    -7.042      3.148      4.244
REMARK INTER + INTRA:          -9.077
REMARK INTER:                  -8.892
REMARK INTRA:                  -0.185
REMARK UNBOUND:                -0.183
REMARK  Name = 439924
REMARK  6 active torsions:
REMARK  status: ('A' for Active; 'I' for Inactive)
REMARK    1  A    between atoms: O2*_2  and  C2*_8
REMARK    2  A    between atoms: O3*_3  and  C3*_9
REMARK    3  A    between atoms: O5*_4  and  C5*_12
REMARK    4  A    between atoms: N_6  and  C1*_10
REMARK    5  A    between atoms: C4*_11  and  C5*_12
REMARK    6  A    between atoms: C_15  and  C_18
REMARK                            x       y       z     vdW  Elec       q    Type
REMARK                         _______ _______ _______ _____ _____    ______ ____
ROOT
ATOM      1  O4* UNL     1      11.933  14.209   9.363  1.00  0.00    -0.346 OA
ATOM      2  C2* UNL     1       9.875  13.376  10.190  1.00  0.00    +0.128 C 
ATOM      3  C3* UNL     1       9.821  14.891  10.224  1.00  0.00    +0.114 C 
ATOM      4  C1* UNL     1      10.990  13.136   9.187  1.00  0.00    +0.164 C 
ATOM      5  C4* UNL     1      11.295  15.271  10.110  1.00  0.00    +0.113 C 
ENDROOT
BRANCH   4   6
ATOM      6  N   UNL     1      11.608  11.804   9.405  1.00  0.00    -0.325 N 
ATOM      7  C   UNL     1      12.609  11.404   8.599  1.00  0.00    +0.019 A 
ATOM      8  C   UNL     1      11.155  11.024  10.403  1.00  0.00    +0.007 A 
ATOM      9  C   UNL     1      13.205  10.165   8.780  1.00  0.00    +0.053 A 
ATOM     10  C   UNL     1      11.713   9.775  10.630  1.00  0.00    -0.045 A 
ATOM     11  C   UNL     1      12.750   9.344   9.807  1.00  0.00    -0.047 A 
BRANCH   9  14
ATOM     12  O   UNL     1      15.375   9.344   8.371  1.00  0.00    -0.270 OA
ATOM     13  N   UNL     1      14.059   9.746   6.536  1.00  0.00    -0.325 N 
ATOM     14  C   UNL     1      14.286   9.732   7.911  1.00  0.00    +0.243 C 
ATOM     15  H   UNL     1      14.769   9.460   5.918  1.00  0.00    +0.000 HD
ATOM     16  H   UNL     1      13.189  10.043   6.185  1.00  0.00    +0.000 HD
ENDBRANCH   9  14
ENDBRANCH   4   6
BRANCH   2  17
ATOM     17  O2* UNL     1       8.659  12.788   9.778  1.00  0.00    -0.385 OA
ATOM     18  H2* UNL     1       8.844  11.972   9.286  1.00  0.00    +0.000 HD
ENDBRANCH   2  17
BRANCH   3  19
ATOM     19  O3* UNL     1       9.132  15.369   9.068  1.00  0.00    -0.386 OA
ATOM     20  H3* UNL     1       8.203  15.095   9.110  1.00  0.00    +0.000 HD
ENDBRANCH   3  19
BRANCH   5  21
ATOM     21  C5* UNL     1      11.983  15.389  11.462  1.00  0.00    +0.073 C 
BRANCH  21  22
ATOM     22  O5* UNL     1      13.346  15.711  11.250  1.00  0.00    -0.392 OA
ATOM     23  H5* UNL     1      13.501  16.640  11.486  1.00  0.00    +0.000 HD
ENDBRANCH  21  22
ENDBRANCH   5  21
TORSDOF 6
ENDMDL
MODEL 5
REMARK VINA RESULT:    -6.744     13.154     16.451
REMARK INTER + INTRA:          -8.700
REMARK INTER:                  -8.429
REMARK INTRA:                  -0.271
REMARK UNBOUND:                -0.183
REMARK  Name = 439924
REMARK  6 active torsions:
REMARK  status: ('A' for Active; 'I' for Inactive)
REMARK    1  A    between atoms: O2*_2  and  C2*_8
REMARK    2  A    between atoms: O3*_3  and  C3*_9
REMARK    3  A    between atoms: O5*_4  and  C5*_12
REMARK    4  A    between atoms: N_6  and  C1*_10
REMARK    5  A    between atoms: C4*_11  and  C5*_12
REMARK    6  A    between atoms: C_15  and  C_18
REMARK                            x       y       z     vdW  Elec       q    Type
REMARK                         _______ _______ _______ _____ _____    ______ ____
ROOT
ATOM      1  O4* UNL     1      12.971   1.197  -7.053  1.00  0.00    -0.346 OA
ATOM      2  C2* UNL     1      10.770   2.019  -6.744  1.00  0.00    +0.128 C 
ATOM      3  C3* UNL     1      10.835   1.330  -8.093  1.00  0.00    +0.114 C 
ATOM      4  C1* UNL     1      11.972   1.414  -6.040  1.00  0.00    +0.164 C 
ATOM      5  C4* UNL     1      12.337   1.260  -8.351  1.00  0.00    +0.113 C 
ENDROOT
BRANCH   4   6
ATOM      6  N   UNL     1      12.452   2.315  -4.962  1.00  0.00    -0.325 N 
ATOM      7  C   UNL     1      13.347   1.855  -4.070  1.00  0.00    +0.019 A 
ATOM      8  C   UNL     1      11.981   3.575  -4.900  1.00  0.00    +0.007 A 
ATOM      9  C   UNL     1      13.813   2.676  -3.053  1.00  0.00    +0.053 A 
ATOM     10  C   UNL     1      12.412   4.440  -3.905  1.00  0.00    -0.045 A 
ATOM     11  C   UNL     1      13.338   3.981  -2.973  1.00  0.00    -0.047 A 
BRANCH   9  14
ATOM     12  O   UNL     1      15.915   1.809  -2.439  1.00  0.00    -0.270 OA
ATOM     13  N   UNL     1      14.403   2.149  -0.748  1.00  0.00    -0.325 N 
ATOM     14  C   UNL     1      14.781   2.180  -2.089  1.00  0.00    +0.243 C 
ATOM     15  H   UNL     1      15.033   1.819  -0.067  1.00  0.00    +0.000 HD
ATOM     16  H   UNL     1      13.508   2.458  -0.482  1.00  0.00    +0.000 HD
ENDBRANCH   9  14
ENDBRANCH   4   6
BRANCH   2  17
ATOM     17  O2* UNL     1       9.567   1.764  -6.050  1.00  0.00    -0.385 OA
ATOM     18  H2* UNL     1       9.729   1.816  -5.094  1.00  0.00    +0.000 HD
ENDBRANCH   2  17
BRANCH   3  19
ATOM     19  O3* UNL     1      10.326   0.001  -7.975  1.00  0.00    -0.386 OA
ATOM     20  H3* UNL     1      10.478  -0.478  -8.804  1.00  0.00    +0.000 HD
ENDBRANCH   3  19
BRANCH   5  21
ATOM     21  C5* UNL     1      12.870   2.480  -9.088  1.00  0.00    +0.073 C 
BRANCH  21  22
ATOM     22  O5* UNL     1      12.191   2.597 -10.325  1.00  0.00    -0.392 OA
ATOM     23  H5* UNL     1      12.823   2.489 -11.053  1.00  0.00    +0.000 HD
ENDBRANCH  21  22
ENDBRANCH   5  21
TORSDOF 6
ENDMDL
MODEL 6
REMARK VINA RESULT:    -6.708     13.195     16.005
REMARK INTER + INTRA:          -8.655
REMARK INTER:                  -8.139
REMARK INTRA:                  -0.517
REMARK UNBOUND:                -0.183
REMARK  Name = 439924
REMARK  6 active torsions:
REMARK  status: ('A' for Active; 'I' for Inactive)
REMARK    1  A    between atoms: O2*_2  and  C2*_8
REMARK    2  A    between atoms: O3*_3  and  C3*_9
REMARK    3  A    between atoms: O5*_4  and  C5*_12
REMARK    4  A    between atoms: N_6  and  C1*_10
REMARK    5  A    between atoms: C4*_11  and  C5*_12
REMARK    6  A    between atoms: C_15  and  C_18
REMARK                            x       y       z     vdW  Elec       q    Type
REMARK                         _______ _______ _______ _____ _____    ______ ____
ROOT
ATOM      1  O4* UNL     1      11.148   1.249  -5.923  1.00  0.00    -0.346 OA
ATOM      2  C2* UNL     1      13.020   2.083  -7.111  1.00  0.00    +0.128 C 
ATOM      3  C3* UNL     1      12.319   1.062  -7.986  1.00  0.00    +0.114 C 
ATOM      4  C1* UNL     1      11.919   2.446  -6.131  1.00  0.00    +0.164 C 
ATOM      5  C4* UNL     1      11.455   0.309  -6.979  1.00  0.00    +0.113 C 
ENDROOT
BRANCH   4   6
ATOM      6  N   UNL     1      12.498   2.968  -4.868  1.00  0.00    -0.325 N 
ATOM      7  C   UNL     1      13.485   2.281  -4.263  1.00  0.00    +0.019 A 
ATOM      8  C   UNL     1      12.024   4.117  -4.353  1.00  0.00    +0.007 A 
ATOM      9  C   UNL     1      14.044   2.746  -3.082  1.00  0.00    +0.053 A 
ATOM     10  C   UNL     1      12.547   4.629  -3.174  1.00  0.00    -0.045 A 
ATOM     11  C   UNL     1      13.568   3.932  -2.535  1.00  0.00    -0.047 A 
BRANCH   9  14
ATOM     12  O   UNL     1      16.113   1.619  -3.056  1.00  0.00    -0.270 OA
ATOM     13  N   UNL     1      14.983   1.752  -1.064  1.00  0.00    -0.325 N 
ATOM     14  C   UNL     1      15.110   2.004  -2.429  1.00  0.00    +0.243 C 
ATOM     15  H   UNL     1      15.686   1.252  -0.590  1.00  0.00    +0.000 HD
ATOM     16  H   UNL     1      14.191   2.072  -0.577  1.00  0.00    +0.000 HD
ENDBRANCH   9  14
ENDBRANCH   4   6
BRANCH   2  17
ATOM     17  O2* UNL     1      13.478   3.207  -7.832  1.00  0.00    -0.385 OA
ATOM     18  H2* UNL     1      12.817   3.455  -8.499  1.00  0.00    +0.000 HD
ENDBRANCH   2  17
BRANCH   3  19
ATOM     19  O3* UNL     1      11.466   1.734  -8.912  1.00  0.00    -0.386 OA
ATOM     20  H3* UNL     1      11.827   2.613  -9.104  1.00  0.00    +0.000 HD
ENDBRANCH   3  19
BRANCH   5  21
ATOM     21  C5* UNL     1      12.165  -0.888  -6.365  1.00  0.00    +0.073 C 
BRANCH  21  22
ATOM     22  O5* UNL     1      11.751  -1.020  -5.017  1.00  0.00    -0.392 OA
ATOM     23  H5* UNL     1      12.257  -0.407  -4.460  1.00  0.00    +0.000 HD
ENDBRANCH  21  22
ENDBRANCH   5  21
TORSDOF 6
ENDMDL
MODEL 7
REMARK VINA RESULT:    -6.621     12.311     15.557
REMARK INTER + INTRA:          -8.545
REMARK INTER:                  -8.083
REMARK INTRA:                  -0.462
REMARK UNBOUND:                -0.183
REMARK  Name = 439924
REMARK  6 active torsions:
REMARK  status: ('A' for Active; 'I' for Inactive)
REMARK    1  A    between atoms: O2*_2  and  C2*_8
REMARK    2  A    between atoms: O3*_3  and  C3*_9
REMARK    3  A    between atoms: O5*_4  and  C5*_12
REMARK    4  A    between atoms: N_6  and  C1*_10
REMARK    5  A    between atoms: C4*_11  and  C5*_12
REMARK    6  A    between atoms: C_15  and  C_18
REMARK                            x       y       z     vdW  Elec       q    Type
REMARK                         _______ _______ _______ _____ _____    ______ ____
ROOT
ATOM      1  O4* UNL     1      12.840   2.534  -6.493  1.00  0.00    -0.346 OA
ATOM      2  C2* UNL     1      12.054   0.743  -5.156  1.00  0.00    +0.128 C 
ATOM      3  C3* UNL     1      10.908   1.226  -6.024  1.00  0.00    +0.114 C 
ATOM      4  C1* UNL     1      13.254   1.284  -5.913  1.00  0.00    +0.164 C 
ATOM      5  C4* UNL     1      11.396   2.602  -6.470  1.00  0.00    +0.113 C 
ENDROOT
BRANCH   4   6
ATOM      6  N   UNL     1      14.415   1.443  -5.002  1.00  0.00    -0.325 N 
ATOM      7  C   UNL     1      14.232   2.009  -3.795  1.00  0.00    +0.019 A 
ATOM      8  C   UNL     1      15.628   1.018  -5.403  1.00  0.00    +0.007 A 
ATOM      9  C   UNL     1      15.299   2.170  -2.924  1.00  0.00    +0.053 A 
ATOM     10  C   UNL     1      16.732   1.154  -4.572  1.00  0.00    -0.045 A 
ATOM     11  C   UNL     1      16.560   1.737  -3.320  1.00  0.00    -0.047 A 
BRANCH   9  14
ATOM     12  O   UNL     1      15.659   3.850  -1.312  1.00  0.00    -0.270 OA
ATOM     13  N   UNL     1      14.247   2.140  -0.726  1.00  0.00    -0.325 N 
ATOM     14  C   UNL     1      15.102   2.782  -1.620  1.00  0.00    +0.243 C 
ATOM     15  H   UNL     1      14.090   2.526   0.166  1.00  0.00    +0.000 HD
ATOM     16  H   UNL     1      13.802   1.302  -0.986  1.00  0.00    +0.000 HD
ENDBRANCH   9  14
ENDBRANCH   4   6
BRANCH   2  17
ATOM     17  O2* UNL     1      12.098  -0.663  -5.030  1.00  0.00    -0.385 OA
ATOM     18  H2* UNL     1      11.686  -0.925  -4.191  1.00  0.00    +0.000 HD
ENDBRANCH   2  17
BRANCH   3  19
ATOM     19  O3* UNL     1      10.793   0.385  -7.171  1.00  0.00    -0.386 OA
ATOM     20  H3* UNL     1      10.984  -0.532  -6.920  1.00  0.00    +0.000 HD
ENDBRANCH   3  19
BRANCH   5  21
ATOM     21  C5* UNL     1      10.981   3.715  -5.520  1.00  0.00    +0.073 C 
BRANCH  21  22
ATOM     22  O5* UNL     1       9.570   3.708  -5.400  1.00  0.00    -0.392 OA
ATOM     23  H5* UNL     1       9.171   3.573  -6.274  1.00  0.00    +0.000 HD
ENDBRANCH  21  22
ENDBRANCH   5  21
TORSDOF 6
ENDMDL
MODEL 8
REMARK VINA RESULT:    -6.493     12.214     15.528
REMARK INTER + INTRA:          -8.383
REMARK INTER:                  -7.927
REMARK INTRA:                  -0.456
REMARK UNBOUND:                -0.183
REMARK  Name = 439924
REMARK  6 active torsions:
REMARK  status: ('A' for Active; 'I' for Inactive)
REMARK    1  A    between atoms: O2*_2  and  C2*_8
REMARK    2  A    between atoms: O3*_3  and  C3*_9
REMARK    3  A    between atoms: O5*_4  and  C5*_12
REMARK    4  A    between atoms: N_6  and  C1*_10
REMARK    5  A    between atoms: C4*_11  and  C5*_12
REMARK    6  A    between atoms: C_15  and  C_18
REMARK                            x       y       z     vdW  Elec       q    Type
REMARK                         _______ _______ _______ _____ _____    ______ ____
ROOT
ATOM      1  O4* UNL     1      12.628   1.035  -5.787  1.00  0.00    -0.346 OA
ATOM      2  C2* UNL     1      11.719   3.222  -5.840  1.00  0.00    +0.128 C 
ATOM      3  C3* UNL     1      10.745   2.286  -6.530  1.00  0.00    +0.114 C 
ATOM      4  C1* UNL     1      12.541   2.247  -5.016  1.00  0.00    +0.164 C 
ATOM      5  C4* UNL     1      11.616   1.067  -6.819  1.00  0.00    +0.113 C 
ENDROOT
BRANCH   4   6
ATOM      6  N   UNL     1      13.877   2.818  -4.715  1.00  0.00    -0.325 N 
ATOM      7  C   UNL     1      14.235   3.015  -3.432  1.00  0.00    +0.019 A 
ATOM      8  C   UNL     1      14.704   3.128  -5.730  1.00  0.00    +0.007 A 
ATOM      9  C   UNL     1      15.477   3.547  -3.122  1.00  0.00    +0.053 A 
ATOM     10  C   UNL     1      15.960   3.663  -5.479  1.00  0.00    -0.045 A 
ATOM     11  C   UNL     1      16.346   3.873  -4.159  1.00  0.00    -0.047 A 
BRANCH   9  14
ATOM     12  O   UNL     1      17.059   3.832  -1.400  1.00  0.00    -0.270 OA
ATOM     13  N   UNL     1      14.848   3.902  -0.794  1.00  0.00    -0.325 N 
ATOM     14  C   UNL     1      15.864   3.760  -1.737  1.00  0.00    +0.243 C 
ATOM     15  H   UNL     1      15.073   4.048   0.153  1.00  0.00    +0.000 HD
ATOM     16  H   UNL     1      13.907   3.856  -1.076  1.00  0.00    +0.000 HD
ENDBRANCH   9  14
ENDBRANCH   4   6
BRANCH   2  17
ATOM     17  O2* UNL     1      11.079   4.188  -5.033  1.00  0.00    -0.385 OA
ATOM     18  H2* UNL     1      10.804   3.780  -4.197  1.00  0.00    +0.000 HD
ENDBRANCH   2  17
BRANCH   3  19
ATOM     19  O3* UNL     1       9.716   1.910  -5.614  1.00  0.00    -0.386 OA
ATOM     20  H3* UNL     1       8.860   2.225  -5.943  1.00  0.00    +0.000 HD
ENDBRANCH   3  19
BRANCH   5  21
ATOM     21  C5* UNL     1      12.310   1.140  -8.171  1.00  0.00    +0.073 C 
BRANCH  21  22
ATOM     22  O5* UNL     1      11.367   1.555  -9.143  1.00  0.00    -0.392 OA
ATOM     23  H5* UNL     1      11.834   1.853  -9.941  1.00  0.00    +0.000 HD
ENDBRANCH  21  22
ENDBRANCH   5  21
TORSDOF 6
ENDMDL
MODEL 9
REMARK VINA RESULT:    -6.469     12.625     14.862
REMARK INTER + INTRA:          -8.354
REMARK INTER:                  -7.933
REMARK INTRA:                  -0.421
REMARK UNBOUND:                -0.183
REMARK  Name = 439924
REMARK  6 active torsions:
REMARK  status: ('A' for Active; 'I' for Inactive)
REMARK    1  A    between atoms: O2*_2  and  C2*_8
REMARK    2  A    between atoms: O3*_3  and  C3*_9
REMARK    3  A    between atoms: O5*_4  and  C5*_12
REMARK    4  A    between atoms: N_6  and  C1*_10
REMARK    5  A    between atoms: C4*_11  and  C5*_12
REMARK    6  A    between atoms: C_15  and  C_18
REMARK                            x       y       z     vdW  Elec       q    Type
REMARK                         _______ _______ _______ _____ _____    ______ ____
ROOT
ATOM      1  O4* UNL     1      15.433   3.755  -4.001  1.00  0.00    -0.346 OA
ATOM      2  C2* UNL     1      14.452   2.560  -2.205  1.00  0.00    +0.128 C 
ATOM      3  C3* UNL     1      15.895   2.859  -1.845  1.00  0.00    +0.114 C 
ATOM      4  C1* UNL     1      14.193   3.591  -3.289  1.00  0.00    +0.164 C 
ATOM      5  C4* UNL     1      16.504   3.203  -3.201  1.00  0.00    +0.113 C 
ENDROOT
BRANCH   4   6
ATOM      6  N   UNL     1      13.090   3.146  -4.177  1.00  0.00    -0.325 N 
ATOM      7  C   UNL     1      12.957   1.836  -4.455  1.00  0.00    +0.019 A 
ATOM      8  C   UNL     1      12.245   4.062  -4.686  1.00  0.00    +0.007 A 
ATOM      9  C   UNL     1      11.935   1.392  -5.282  1.00  0.00    +0.053 A 
ATOM     10  C   UNL     1      11.204   3.675  -5.518  1.00  0.00    -0.045 A 
ATOM     11  C   UNL     1      11.052   2.324  -5.817  1.00  0.00    -0.047 A 
BRANCH   9  14
ATOM     12  O   UNL     1      11.541  -0.420  -6.734  1.00  0.00    -0.270 OA
ATOM     13  N   UNL     1      11.962  -0.929  -4.537  1.00  0.00    -0.325 N 
ATOM     14  C   UNL     1      11.791  -0.023  -5.582  1.00  0.00    +0.243 C 
ATOM     15  H   UNL     1      11.872  -1.894  -4.705  1.00  0.00    +0.000 HD
ATOM     16  H   UNL     1      12.172  -0.603  -3.634  1.00  0.00    +0.000 HD
ENDBRANCH   9  14
ENDBRANCH   4   6
BRANCH   2  17
ATOM     17  O2* UNL     1      13.568   2.706  -1.114  1.00  0.00    -0.385 OA
ATOM     18  H2* UNL     1      14.077   2.881  -0.306  1.00  0.00    +0.000 HD
ENDBRANCH   2  17
BRANCH   3  19
ATOM     19  O3* UNL     1      15.947   4.016  -1.010  1.00  0.00    -0.386 OA
ATOM     20  H3* UNL     1      15.933   4.814  -1.563  1.00  0.00    +0.000 HD
ENDBRANCH   3  19
BRANCH   5  21
ATOM     21  C5* UNL     1      17.067   1.988  -3.924  1.00  0.00    +0.073 C 
BRANCH  21  22
ATOM     22  O5* UNL     1      18.378   1.744  -3.447  1.00  0.00    -0.392 OA
ATOM     23  H5* UNL     1      19.012   1.843  -4.176  1.00  0.00    +0.000 HD
ENDBRANCH  21  22
ENDBRANCH   5  21
TORSDOF 6
ENDMDL
